 Entering Gaussian System, Link 0=g09
 Input=hfAM1Mulliken.in
 Output=hfAM1Mulliken.log
 Initial command:
 /home/mis/programs/g09/l1.exe "/home/mis/kirkwood/charge_method/medium_set/molecule1/conf0/Gau-11745.inp" -scrdir="/home/mis/kirkwood/charge_method/medium_set/molecule1/conf0/"
 Entering Link 1 = /home/mis/programs/g09/l1.exe PID=     11747.
  
 Copyright (c) 1988,1990,1992,1993,1995,1998,2003,2009,2013,
            Gaussian, Inc.  All Rights Reserved.
  
 This is part of the Gaussian(R) 09 program.  It is based on
 the Gaussian(R) 03 system (copyright 2003, Gaussian, Inc.),
 the Gaussian(R) 98 system (copyright 1998, Gaussian, Inc.),
 the Gaussian(R) 94 system (copyright 1995, Gaussian, Inc.),
 the Gaussian 92(TM) system (copyright 1992, Gaussian, Inc.),
 the Gaussian 90(TM) system (copyright 1990, Gaussian, Inc.),
 the Gaussian 88(TM) system (copyright 1988, Gaussian, Inc.),
 the Gaussian 86(TM) system (copyright 1986, Carnegie Mellon
 University), and the Gaussian 82(TM) system (copyright 1983,
 Carnegie Mellon University). Gaussian is a federally registered
 trademark of Gaussian, Inc.
  
 This software contains proprietary and confidential information,
 including trade secrets, belonging to Gaussian, Inc.
  
 This software is provided under written license and may be
 used, copied, transmitted, or stored only in accord with that
 written license.
  
 The following legend is applicable only to US Government
 contracts under FAR:
  
                    RESTRICTED RIGHTS LEGEND
  
 Use, reproduction and disclosure by the US Government is
 subject to restrictions as set forth in subparagraphs (a)
 and (c) of the Commercial Computer Software - Restricted
 Rights clause in FAR 52.227-19.
  
 Gaussian, Inc.
 340 Quinnipiac St., Bldg. 40, Wallingford CT 06492
  
  
 ---------------------------------------------------------------
 Warning -- This program may not be used in any manner that
 competes with the business of Gaussian, Inc. or will provide
 assistance to any competitor of Gaussian, Inc.  The licensee
 of this program is prohibited from giving any competitor of
 Gaussian, Inc. access to this program.  By using this program,
 the user acknowledges that Gaussian, Inc. is engaged in the
 business of creating and licensing software in the field of
 computational chemistry and represents and warrants to the
 licensee that it is not a competitor of Gaussian, Inc. and that
 it will not use this program in any manner prohibited above.
 ---------------------------------------------------------------
  

 Cite this work as:
 Gaussian 09, Revision D.01,
 M. J. Frisch, G. W. Trucks, H. B. Schlegel, G. E. Scuseria, 
 M. A. Robb, J. R. Cheeseman, G. Scalmani, V. Barone, B. Mennucci, 
 G. A. Petersson, H. Nakatsuji, M. Caricato, X. Li, H. P. Hratchian, 
 A. F. Izmaylov, J. Bloino, G. Zheng, J. L. Sonnenberg, M. Hada, 
 M. Ehara, K. Toyota, R. Fukuda, J. Hasegawa, M. Ishida, T. Nakajima, 
 Y. Honda, O. Kitao, H. Nakai, T. Vreven, J. A. Montgomery, Jr., 
 J. E. Peralta, F. Ogliaro, M. Bearpark, J. J. Heyd, E. Brothers, 
 K. N. Kudin, V. N. Staroverov, T. Keith, R. Kobayashi, J. Normand, 
 K. Raghavachari, A. Rendell, J. C. Burant, S. S. Iyengar, J. Tomasi, 
 M. Cossi, N. Rega, J. M. Millam, M. Klene, J. E. Knox, J. B. Cross, 
 V. Bakken, C. Adamo, J. Jaramillo, R. Gomperts, R. E. Stratmann, 
 O. Yazyev, A. J. Austin, R. Cammi, C. Pomelli, J. W. Ochterski, 
 R. L. Martin, K. Morokuma, V. G. Zakrzewski, G. A. Voth, 
 P. Salvador, J. J. Dannenberg, S. Dapprich, A. D. Daniels, 
 O. Farkas, J. B. Foresman, J. V. Ortiz, J. Cioslowski, 
 and D. J. Fox, Gaussian, Inc., Wallingford CT, 2013.
 
 ******************************************
 Gaussian 09:  ES64L-G09RevD.01 24-Apr-2013
                18-Oct-2018 
 ******************************************
 %nprocshared=4
 Will use up to    4 processors via shared memory.
 %mem=6GB
 %chk=am1.chk
 ----------------
 #AM1 iop(4/24=3)
 ----------------
 1/38=1/1;
 2/12=2,17=6,18=5,40=1/2;
 3/5=2,16=1,25=1,41=700000/1,2,3;
 4/24=3,35=1/1;
 5/5=2,35=1,38=5/2;
 6/7=2,8=2,9=2,10=2,28=1/1;
 99/5=1,9=1/99;
 -------------
 hfAM1Mulliken
 -------------
 Symbolic Z-matrix:
 Charge =  0 Multiplicity = 1
 C                    -1.89141   0.14578  -0.00009 
 C                    -0.51914  -0.52331   0.00012 
 C                     0.61992   0.47842   0.00008 
 O                     1.83208  -0.22997  -0.00016 
 H                    -2.02677   0.7726    0.87799 
 H                    -2.0268    0.77198  -0.87859 
 H                    -2.68384  -0.59593   0.0002 
 H                    -0.41335  -1.16264  -0.87209 
 H                    -0.41357  -1.16246   0.8725 
 H                     0.54979   1.11831  -0.8799 
 H                     0.55005   1.11813   0.88021 
 H                     2.55161   0.37442   0.00028 
 
                          Input orientation:                          
 ---------------------------------------------------------------------
 Center     Atomic      Atomic             Coordinates (Angstroms)
 Number     Number       Type             X           Y           Z
 ---------------------------------------------------------------------
      1          6           0       -1.891410    0.145780   -0.000090
      2          6           0       -0.519140   -0.523310    0.000120
      3          6           0        0.619920    0.478420    0.000080
      4          8           0        1.832080   -0.229970   -0.000160
      5          1           0       -2.026770    0.772600    0.877990
      6          1           0       -2.026800    0.771980   -0.878590
      7          1           0       -2.683840   -0.595930    0.000200
      8          1           0       -0.413350   -1.162640   -0.872090
      9          1           0       -0.413570   -1.162460    0.872500
     10          1           0        0.549790    1.118310   -0.879900
     11          1           0        0.550050    1.118130    0.880210
     12          1           0        2.551610    0.374420    0.000280
 ---------------------------------------------------------------------
                    Distance matrix (angstroms):
                    1          2          3          4          5
     1  C    0.000000
     2  C    1.526698   0.000000
     3  C    2.533264   1.516879   0.000000
     4  O    3.742401   2.369448   1.403976   0.000000
     5  H    1.087313   2.173243   2.803968   4.082526   0.000000
     6  H    1.087299   2.173234   2.804169   4.082462   1.756580
     7  H    1.085394   2.165918   3.474055   4.530724   1.753605
     8  H    2.158010   1.086593   2.126360   2.583039   3.067745
     9  H    2.157989   1.086602   2.126430   2.583412   2.519306
    10  H    2.771162   2.147548   1.090295   2.058171   3.138209
    11  H    2.771483   2.147569   1.090293   2.058161   2.599884
    12  H    4.448899   3.199285   1.934488   0.939687   4.678727
                    6          7          8          9         10
     6  H    0.000000
     7  H    1.753611   0.000000
     8  H    2.519130   2.497434   0.000000
     9  H    3.067717   2.497196   1.744590   0.000000
    10  H    2.599762   3.764247   2.475971   3.033295   0.000000
    11  H    3.139005   3.764368   3.033250   2.475826   1.760110
    12  H    4.678921   5.324614   3.451749   3.451820   2.309843
                   11         12
    11  H    0.000000
    12  H    2.309464   0.000000
 Stoichiometry    C3H8O
 Framework group  C1[X(C3H8O)]
 Deg. of freedom    30
 Full point group                 C1      NOp   1
 Largest Abelian subgroup         C1      NOp   1
 Largest concise Abelian subgroup C1      NOp   1
                         Standard orientation:                         
 ---------------------------------------------------------------------
 Center     Atomic      Atomic             Coordinates (Angstroms)
 Number     Number       Type             X           Y           Z
 ---------------------------------------------------------------------
      1          6           0       -1.891409    0.145780   -0.000089
      2          6           0       -0.519139   -0.523310    0.000121
      3          6           0        0.619920    0.478421    0.000081
      4          8           0        1.832081   -0.229969   -0.000159
      5          1           0       -2.026770    0.772600    0.877991
      6          1           0       -2.026800    0.771980   -0.878589
      7          1           0       -2.683839   -0.595931    0.000201
      8          1           0       -0.413349   -1.162640   -0.872089
      9          1           0       -0.413569   -1.162460    0.872501
     10          1           0        0.549790    1.118311   -0.879899
     11          1           0        0.550050    1.118131    0.880211
     12          1           0        2.551610    0.374421    0.000281
 ---------------------------------------------------------------------
 Rotational constants (GHZ):     27.0486228      3.8304393      3.5760730
 Standard basis: VSTO-6G (5D, 7F)
 There are    24 symmetry adapted cartesian basis functions of A   symmetry.
 There are    24 symmetry adapted basis functions of A   symmetry.
    24 basis functions,   144 primitive gaussians,    24 cartesian basis functions
    13 alpha electrons       13 beta electrons
       nuclear repulsion energy        96.3176232232 Hartrees.
 Integral buffers will be    131072 words long.
 Regular integral format.
 Two-electron integral symmetry is turned off.
 Do NDO integrals.
 One-electron integrals computed using PRISM.
 NBasis=    24 RedAO= F EigKep=  0.00D+00  NBF=    24
 NBsUse=    24 1.00D-04 EigRej=  0.00D+00 NBFU=    24
 Simple Huckel Guess.
 Overlap will be assumed to be unity.
 Keep J ints in memory in canonical form, NReq=889405.
 Requested convergence on RMS density matrix=1.00D-08 within 128 cycles.
 Requested convergence on MAX density matrix=1.00D-06.
 Requested convergence on             energy=1.00D-06.
 No special actions if energy rises.
 SCF Done:  E(RAM1) = -0.104131551110     A.U. after   12 cycles
            NFock= 11  Conv=0.49D-08     -V/T= 0.9937

 **********************************************************************

            Population analysis using the SCF density.

 **********************************************************************

 Orbital symmetries:
       Occupied  (A) (A) (A) (A) (A) (A) (A) (A) (A) (A) (A) (A)
                 (A)
       Virtual   (A) (A) (A) (A) (A) (A) (A) (A) (A) (A) (A)
 The electronic state is 1-A.
 Alpha  occ. eigenvalues --   -1.42076  -1.25638  -0.99777  -0.82384  -0.68012
 Alpha  occ. eigenvalues --   -0.61095  -0.57071  -0.52298  -0.49285  -0.48228
 Alpha  occ. eigenvalues --   -0.44023  -0.43614  -0.39937
 Alpha virt. eigenvalues --    0.12489   0.14506   0.15207   0.16237   0.16385
 Alpha virt. eigenvalues --    0.17141   0.17681   0.18751   0.18964   0.19747
 Alpha virt. eigenvalues --    0.24141
          Condensed to atoms (all electrons):
               1          2          3          4          5          6
     1  C    4.205463   0.000000   0.000000   0.000000   0.000000   0.000000
     2  C    0.000000   4.160828   0.000000   0.000000   0.000000   0.000000
     3  C    0.000000   0.000000   4.006004   0.000000   0.000000   0.000000
     4  O    0.000000   0.000000   0.000000   6.333431   0.000000   0.000000
     5  H    0.000000   0.000000   0.000000   0.000000   0.929617   0.000000
     6  H    0.000000   0.000000   0.000000   0.000000   0.000000   0.929611
     7  H    0.000000   0.000000   0.000000   0.000000   0.000000   0.000000
     8  H    0.000000   0.000000   0.000000   0.000000   0.000000   0.000000
     9  H    0.000000   0.000000   0.000000   0.000000   0.000000   0.000000
    10  H    0.000000   0.000000   0.000000   0.000000   0.000000   0.000000
    11  H    0.000000   0.000000   0.000000   0.000000   0.000000   0.000000
    12  H    0.000000   0.000000   0.000000   0.000000   0.000000   0.000000
               7          8          9         10         11         12
     1  C    0.000000   0.000000   0.000000   0.000000   0.000000   0.000000
     2  C    0.000000   0.000000   0.000000   0.000000   0.000000   0.000000
     3  C    0.000000   0.000000   0.000000   0.000000   0.000000   0.000000
     4  O    0.000000   0.000000   0.000000   0.000000   0.000000   0.000000
     5  H    0.000000   0.000000   0.000000   0.000000   0.000000   0.000000
     6  H    0.000000   0.000000   0.000000   0.000000   0.000000   0.000000
     7  H    0.923606   0.000000   0.000000   0.000000   0.000000   0.000000
     8  H    0.000000   0.909384   0.000000   0.000000   0.000000   0.000000
     9  H    0.000000   0.000000   0.909399   0.000000   0.000000   0.000000
    10  H    0.000000   0.000000   0.000000   0.946983   0.000000   0.000000
    11  H    0.000000   0.000000   0.000000   0.000000   0.946994   0.000000
    12  H    0.000000   0.000000   0.000000   0.000000   0.000000   0.798679
 Mulliken charges:
               1
     1  C   -0.205463
     2  C   -0.160828
     3  C   -0.006004
     4  O   -0.333431
     5  H    0.070383
     6  H    0.070389
     7  H    0.076394
     8  H    0.090616
     9  H    0.090601
    10  H    0.053017
    11  H    0.053006
    12  H    0.201321
 Sum of Mulliken charges =   0.00000
 Mulliken charges with hydrogens summed into heavy atoms:
               1
     1  C    0.011704
     2  C    0.020388
     3  C    0.100019
     4  O   -0.132110
 Charge=              0.0000 electrons
 Dipole moment (field-independent basis, Debye):
    X=             -0.3779    Y=              1.4525    Z=              0.0009  Tot=              1.5009
 N-N= 9.631762322324D+01 E-N=-1.579840375377D+02  KE=-1.659069501500D+01

 Test job not archived.
 1\1\GINC-MIS-X10SRA\SP\RAM1\ZDO\C3H8O1\MIS\18-Oct-2018\0\\#AM1 iop(4/2
 4=3)\\hfAM1Mulliken\\0,1\C,0,-1.89141,0.14578,-0.00009\C,0,-0.51914,-0
 .52331,0.00012\C,0,0.61992,0.47842,0.00008\O,0,1.83208,-0.22997,-0.000
 16\H,0,-2.02677,0.7726,0.87799\H,0,-2.0268,0.77198,-0.87859\H,0,-2.683
 84,-0.59593,0.0002\H,0,-0.41335,-1.16264,-0.87209\H,0,-0.41357,-1.1624
 6,0.8725\H,0,0.54979,1.11831,-0.8799\H,0,0.55005,1.11813,0.88021\H,0,2
 .55161,0.37442,0.00028\\Version=ES64L-G09RevD.01\State=1-A\HF=-0.10413
 16\RMSD=4.942e-09\Dipole=-0.1486862,0.5714537,0.0003538\PG=C01 [X(C3H8
 O1)]\\@


 Once you get people laughing, they're
 listening and you can tell them almost anything.
                                 -- Herb Gardner
 Job cpu time:       0 days  0 hours  0 minutes  2.0 seconds.
 File lengths (MBytes):  RWF=      5 Int=      0 D2E=      0 Chk=      2 Scr=      1
 Normal termination of Gaussian 09 at Thu Oct 18 15:37:12 2018.
