
    -----------------------------------------------------------------------
          Psi4: An Open-Source Ab Initio Electronic Structure Package
                               Psi4 1.3.1 release

                         Git: Rev {HEAD} 2ce1c29 


    R. M. Parrish, L. A. Burns, D. G. A. Smith, A. C. Simmonett,
    A. E. DePrince III, E. G. Hohenstein, U. Bozkaya, A. Yu. Sokolov,
    R. Di Remigio, R. M. Richard, J. F. Gonthier, A. M. James,
    H. R. McAlexander, A. Kumar, M. Saitow, X. Wang, B. P. Pritchard,
    P. Verma, H. F. Schaefer III, K. Patkowski, R. A. King, E. F. Valeev,
    F. A. Evangelista, J. M. Turney, T. D. Crawford, and C. D. Sherrill,
    J. Chem. Theory Comput. 13(7) pp 3185--3197 (2017).
    (doi: 10.1021/acs.jctc.7b00174)


                         Additional Contributions by
    P. Kraus, H. Kruse, M. H. Lechner, M. C. Schieber, R. A. Shaw,
    A. Alenaizan, R. Galvelis, Z. L. Glick, S. Lehtola, and J. P. Misiewicz

    -----------------------------------------------------------------------


    Psi4 started on: Wednesday, 01 May 2019 02:21PM

    Process ID: 5572
    Host:       nighthawk
    PSIDATADIR: /home/mschauperl/.conda/envs/fb/share/psi4
    Memory:     500.0 MiB
    Threads:    1
    
  ==> Input File <==

--------------------------------------------------------------------------
memory 12 gb
molecule meoh {
noreorient
nocom
0 1
C     1.1410    -2.7500     2.0750
C    -0.6360    -0.5880     3.3070
C     1.2180    -1.2370     2.0140
O    -0.0410    -0.6040     2.0390
H     0.7310    -3.1040     3.0280
H     0.5050    -3.1320     1.2670
H     2.1410    -3.1870     1.9630
H    -1.5560    -0.0000     3.2280
H     0.0220    -0.1150     4.0580
H    -0.8990    -1.5950     3.6700
H     1.6830    -0.9240     1.0710
H     1.8500    -0.8520     2.8360
}
set {
basis aug-cc-pV(D+d)Z
}
E,wfn = prop('PW6B95' , properties = ['GRID_ESP', 'GRID_FIELD'], return_wfn=True)
--------------------------------------------------------------------------

  Memory set to  11.176 GiB by Python driver.

*** tstart() called on nighthawk
*** at Wed May  1 14:21:26 2019

   => Loading Basis Set <=

    Name: AUG-CC-PV(D+D)Z
    Role: ORBITAL
    Keyword: BASIS
    atoms 1-3  entry C          line   198 file /home/mschauperl/.conda/envs/fb/share/psi4/basis/aug-cc-pv_dpd_z.gbs 
    atoms 4    entry O          line   270 file /home/mschauperl/.conda/envs/fb/share/psi4/basis/aug-cc-pv_dpd_z.gbs 
    atoms 5-12 entry H          line    56 file /home/mschauperl/.conda/envs/fb/share/psi4/basis/aug-cc-pv_dpd_z.gbs 


         ---------------------------------------------------------
                                   SCF
               by Justin Turney, Rob Parrish, Andy Simmonett
                          and Daniel G. A. Smith
                              RKS Reference
                        1 Threads,  11444 MiB Core
         ---------------------------------------------------------

  ==> Geometry <==

    Molecular point group: c1
    Full point group: C1

    Geometry (in Angstrom), charge = 0, multiplicity = 1:

       Center              X                  Y                   Z               Mass       
    ------------   -----------------  -----------------  -----------------  -----------------
         C            1.141000000000    -2.750000000000     2.075000000000    12.000000000000
         C           -0.636000000000    -0.588000000000     3.307000000000    12.000000000000
         C            1.218000000000    -1.237000000000     2.014000000000    12.000000000000
         O           -0.041000000000    -0.604000000000     2.039000000000    15.994914619570
         H            0.731000000000    -3.104000000000     3.028000000000     1.007825032230
         H            0.505000000000    -3.132000000000     1.267000000000     1.007825032230
         H            2.141000000000    -3.187000000000     1.963000000000     1.007825032230
         H           -1.556000000000     0.000000000000     3.228000000000     1.007825032230
         H            0.022000000000    -0.115000000000     4.058000000000     1.007825032230
         H           -0.899000000000    -1.595000000000     3.670000000000     1.007825032230
         H            1.683000000000    -0.924000000000     1.071000000000     1.007825032230
         H            1.850000000000    -0.852000000000     2.836000000000     1.007825032230

  Running in c1 symmetry.

  Rotational constants: A =      0.16710  B =      0.03502  C =      0.03032 [cm^-1]
  Rotational constants: A =   5009.39173  B =   1049.81031  C =    908.99804 [MHz]
  Nuclear repulsion =  135.297144179585587

  Charge       = 0
  Multiplicity = 1
  Electrons    = 34
  Nalpha       = 17
  Nbeta        = 17

  ==> Algorithm <==

  SCF Algorithm Type is DF.
  DIIS enabled.
  MOM disabled.
  Fractional occupation disabled.
  Guess Type is SAD.
  Energy threshold   = 1.00e-06
  Density threshold  = 1.00e-06
  Integral threshold = 0.00e+00

  ==> Primary Basis <==

  Basis Set: AUG-CC-PV(D+D)Z
    Blend: AUG-CC-PV(D+D)Z
    Number of shells: 76
    Number of basis function: 164
    Number of Cartesian functions: 172
    Spherical Harmonics?: true
    Max angular momentum: 2

  ==> DFT Potential <==

   => Composite Functional: PW6B95 <= 

    PW6B95 Hybrid Meta-GGA XC Functional

    Y. Zhao and D. Truhlar, J. Phys. Chem. A., 109,5656-5667, 2005


    Deriv               =              1
    GGA                 =           TRUE
    Meta                =           TRUE

    Exchange Hybrid     =           TRUE
    MP2 Hybrid          =          FALSE

   => Exchange Functionals <=

    0.7200    XC_GGA_X_PW91

   => Exact (HF) Exchange <=

    0.2800               HF 

   => Correlation Functionals <=

    1.0000   XC_MGGA_C_BC95

   => Molecular Quadrature <=

    Radial Scheme          =       TREUTLER
    Pruning Scheme         =           FLAT
    Nuclear Scheme         =       TREUTLER

    BS radius alpha        =              1
    Pruning alpha          =              1
    Radial Points          =             75
    Spherical Points       =            302
    Total Points           =         271800
    Total Blocks           =           2087
    Max Points             =            256
    Max Functions          =            164

   => Loading Basis Set <=

    Name: (AUG-CC-PV(D+D)Z AUX)
    Role: JKFIT
    Keyword: DF_BASIS_SCF
    atoms 1-3  entry C          line   154 file /home/mschauperl/.conda/envs/fb/share/psi4/basis/aug-cc-pvdz-jkfit.gbs 
    atoms 4    entry O          line   270 file /home/mschauperl/.conda/envs/fb/share/psi4/basis/aug-cc-pvdz-jkfit.gbs 
    atoms 5-12 entry H          line    70 file /home/mschauperl/.conda/envs/fb/share/psi4/basis/aug-cc-pvdz-jkfit.gbs 

  ==> Pre-Iterations <==

   -------------------------------------------------------
    Irrep   Nso     Nmo     Nalpha   Nbeta   Ndocc  Nsocc
   -------------------------------------------------------
     A        164     164       0       0       0       0
   -------------------------------------------------------
    Total     164     164      17      17      17       0
   -------------------------------------------------------

  ==> Integral Setup <==

  DFHelper Memory: AOs need 0.127 GiB; user supplied 5.427 GiB. Using in-core AOs.

  ==> MemDFJK: Density-Fitted J/K Matrices <==

    J tasked:                   Yes
    K tasked:                   Yes
    wK tasked:                   No
    OpenMP threads:               1
    Memory [MiB]:              5557
    Algorithm:                 Core
    Schwarz Cutoff:           1E-12
    Mask sparsity (%):       0.0669
    Fitting Condition:        1E-10

   => Auxiliary Basis Set <=

  Basis Set: (AUG-CC-PV(D+D)Z AUX)
    Blend: AUG-CC-PVDZ-JKFIT
    Number of shells: 208
    Number of basis function: 600
    Number of Cartesian functions: 684
    Spherical Harmonics?: true
    Max angular momentum: 3

  Cached 100.0% of DFT collocation blocks in 2.955 [GiB].

  Minimum eigenvalue in the overlap matrix is 7.6711235542E-05.
  Using Symmetric Orthogonalization.

  SCF Guess: Superposition of Atomic Densities via on-the-fly atomic UHF.

  ==> Iterations <==

                           Total Energy        Delta E     RMS |[F,P]|

   @DF-RKS iter SAD:  -193.90408668614467   -1.93904e+02   0.00000e+00 
   @DF-RKS iter   1:  -194.17649226000009   -2.72406e-01   5.37566e-03 DIIS
   @DF-RKS iter   2:  -193.97983956388043    1.96653e-01   6.50312e-03 DIIS
   @DF-RKS iter   3:  -194.58214543707302   -6.02306e-01   9.81240e-04 DIIS
   @DF-RKS iter   4:  -194.59040629698714   -8.26086e-03   4.31075e-04 DIIS
   @DF-RKS iter   5:  -194.59228521497951   -1.87892e-03   7.21422e-05 DIIS
   @DF-RKS iter   6:  -194.59234199215629   -5.67772e-05   2.07425e-05 DIIS
   @DF-RKS iter   7:  -194.59234706674138   -5.07459e-06   5.16139e-06 DIIS
   @DF-RKS iter   8:  -194.59234742398223   -3.57241e-07   7.03210e-07 DIIS
  Energy and wave function converged.


  ==> Post-Iterations <==

    Orbital Energies [Eh]
    ---------------------

    Doubly Occupied:                                                      

       1A    -19.316212     2A    -10.350777     3A    -10.345723  
       4A    -10.298210     5A     -1.071489     6A     -0.784233  
       7A     -0.709549     8A     -0.621323     9A     -0.506390  
      10A     -0.503313    11A     -0.471492    12A     -0.426109  
      13A     -0.411934    14A     -0.391730    15A     -0.367682  
      16A     -0.329422    17A     -0.275872  

    Virtual:                                                              

      18A     -0.002934    19A      0.014924    20A      0.017761  
      21A      0.023275    22A      0.044493    23A      0.047282  
      24A      0.050504    25A      0.058201    26A      0.070358  
      27A      0.079087    28A      0.094927    29A      0.107562  
      30A      0.109116    31A      0.119086    32A      0.122342  
      33A      0.127654    34A      0.128940    35A      0.138511  
      36A      0.147073    37A      0.152268    38A      0.168751  
      39A      0.171448    40A      0.177722    41A      0.193676  
      42A      0.210730    43A      0.224458    44A      0.235077  
      45A      0.243693    46A      0.264949    47A      0.273226  
      48A      0.273696    49A      0.294195    50A      0.307427  
      51A      0.320222    52A      0.330290    53A      0.342619  
      54A      0.349382    55A      0.359953    56A      0.365212  
      57A      0.379179    58A      0.381597    59A      0.390433  
      60A      0.398177    61A      0.410085    62A      0.425741  
      63A      0.448098    64A      0.450051    65A      0.470144  
      66A      0.472592    67A      0.474707    68A      0.487707  
      69A      0.501790    70A      0.506061    71A      0.516687  
      72A      0.525131    73A      0.534124    74A      0.544864  
      75A      0.570416    76A      0.579747    77A      0.583200  
      78A      0.597212    79A      0.608833    80A      0.633735  
      81A      0.643912    82A      0.649130    83A      0.665221  
      84A      0.672048    85A      0.680141    86A      0.710032  
      87A      0.733352    88A      0.758212    89A      0.772655  
      90A      0.787214    91A      0.804689    92A      0.838432  
      93A      0.847677    94A      0.861567    95A      0.886705  
      96A      0.934333    97A      0.948355    98A      0.951572  
      99A      0.993736   100A      1.020719   101A      1.061066  
     102A      1.077355   103A      1.087606   104A      1.145960  
     105A      1.178546   106A      1.243563   107A      1.273495  
     108A      1.323436   109A      1.340659   110A      1.369063  
     111A      1.453035   112A      1.463782   113A      1.486729  
     114A      1.537780   115A      1.547524   116A      1.569692  
     117A      1.598037   118A      1.621956   119A      1.651264  
     120A      1.677401   121A      1.691694   122A      1.729566  
     123A      1.770886   124A      1.790223   125A      1.811529  
     126A      1.832025   127A      1.862816   128A      1.875080  
     129A      1.894255   130A      1.918240   131A      1.933831  
     132A      1.940763   133A      1.963818   134A      1.981714  
     135A      1.995116   136A      2.015939   137A      2.058373  
     138A      2.070108   139A      2.140975   140A      2.178135  
     141A      2.211655   142A      2.231686   143A      2.311623  
     144A      2.340469   145A      2.388530   146A      2.424749  
     147A      2.437786   148A      2.479056   149A      2.502744  
     150A      2.536305   151A      2.575425   152A      2.595578  
     153A      2.618820   154A      2.682501   155A      2.739675  
     156A      2.785445   157A      2.828708   158A      2.883821  
     159A      3.106181   160A      3.432849   161A      3.467108  
     162A      3.599120   163A      3.695089   164A      3.704249  

    Final Occupation by Irrep:
              A 
    DOCC [    17 ]

  @DF-RKS Final Energy:  -194.59234742398223

   => Energetics <=

    Nuclear Repulsion Energy =            135.2971441795855867
    One-Electron Energy =                -530.3454306014723443
    Two-Electron Energy =                 221.1141542269272975
    DFT Exchange-Correlation Energy =     -20.6582152290227832
    Empirical Dispersion Energy =           0.0000000000000000
    VV10 Nonlocal Energy =                  0.0000000000000000
    Total Energy =                       -194.5923474239822326

Computation Completed


Properties will be evaluated at   0.000000,   0.000000,   0.000000 [a0]

Properties computed using the PW6B95 density matrix

  Nuclear Dipole Moment: [e a0]
     X:    27.3765      Y:   -85.3986      Z:   154.5966

  Electronic Dipole Moment: [e a0]
     X:   -27.1456      Y:    85.1503      Z:  -154.2174

  Dipole Moment: [e a0]
     X:     0.2309      Y:    -0.2483      Z:     0.3792     Total:     0.5086

  Dipole Moment: [D]
     X:     0.5868      Y:    -0.6311      Z:     0.9638     Total:     1.2928


 Field computed on the grid and written to grid_field.dat

 Electrostatic potential computed on the grid and written to grid_esp.dat

*** tstop() called on nighthawk at Wed May  1 14:22:08 2019
Module time:
	user time   =      40.67 seconds =       0.68 minutes
	system time =       0.93 seconds =       0.02 minutes
	total time  =         42 seconds =       0.70 minutes
Total time:
	user time   =      40.67 seconds =       0.68 minutes
	system time =       0.93 seconds =       0.02 minutes
	total time  =         42 seconds =       0.70 minutes

    Psi4 stopped on: Wednesday, 01 May 2019 02:22PM
    Psi4 wall time for execution: 0:00:41.63

*** Psi4 exiting successfully. Buy a developer a beer!
